 Gaussian 16, Revision C.01,

 ----------------------------------------------------------------------
 #p opt=tight m06/cc-pvtz scrf=(smd,solvent=chloroform) integral=(grid=
 ultrafine) scf=tight
 ----------------------------------------------------------------------

 -----------------------
 Norbornene_exo geometry
 -----------------------
 Symbolic Z-matrix:
 Charge =  0 Multiplicity = 1

 SCF Done:  E(RM06) =  -364.803305786     A.U. after   12 cycles
 SCF Done:  E(RM06) =  -364.818906572     A.U. after   11 cycles
 SCF Done:  E(RM06) =  -364.823350768     A.U. after   10 cycles
 SCF Done:  E(RM06) =  -364.825052135     A.U. after   10 cycles
 SCF Done:  E(RM06) =  -364.825217148     A.U. after    9 cycles
 SCF Done:  E(RM06) =  -364.825241919     A.U. after    9 cycles
 SCF Done:  E(RM06) =  -364.825245906     A.U. after    8 cycles
 SCF Done:  E(RM06) =  -364.825246928     A.U. after    7 cycles
 SCF Done:  E(RM06) =  -364.825246969     A.U. after    6 cycles
 SCF Done:  E(RM06) =  -364.825246968     A.U. after    5 cycles
 SCF Done:  E(RM06) =  -364.825246969     A.U. after    4 cycles
 Optimization completed.
    -- Stationary point found.
 Normal termination of Gaussian 16 at Thu Nov 14 13:24:17 2024.
 Gaussian 16:  ES64L-G16RevC.01  3-Jul-2019

 ----------------------------------------------------------------------
 #p nmr=(giao,spinspin,mixed) m06/cc-pvtz scrf=(smd,solvent=chloroform)
  geom=checkpoint guess=read integral=(grid=ultrafine) scf=tight
 ----------------------------------------------------------------------

 ------------------
 norbornene_exo NMR
 ------------------
 Structure from the checkpoint file:  "norbornene_exo_opt.chk"
 Charge =  0 Multiplicity = 1

 SCF Done:  E(RM06) =  -364.854151774     A.U. after   24 cycles
 Normal termination of Gaussian 16 at Thu Nov 14 14:22:07 2024.

 ----------------------------------------------------------------------
 #P Geom=AllCheck Guess=TCheck SCRF=Check GenChk RM06/ChkBas NMR=ReadFC
  IOp(3/6=22)
 ----------------------------------------------------------------------

 Structure from the checkpoint file:  "norbornene_exo_opt.chk"
 ------------------
 norbornene_exo NMR
 ------------------
 Charge =  0 Multiplicity = 1

                         Standard orientation:
 ---------------------------------------------------------------------
 Center     Atomic      Atomic             Coordinates (Angstroms)
 Number     Number       Type             X           Y           Z
 ---------------------------------------------------------------------
      1          6           0        2.096438    0.061178   -0.370499
      2          6           0        1.173796    0.973982    0.397708
      3          6           0        0.186091   -1.025977    0.262611
      4          6           0        1.508214   -1.128740   -0.452519
      5          1           0        3.009901    0.374883   -0.856572
      6          1           0        1.833698   -1.989309   -1.019902
      7          6           0       -0.020367    1.264716   -0.542845
      8          1           0       -0.697415    1.991302   -0.092128
      9          1           0        0.290531    1.648069   -1.512966
     10          6           0       -0.701927   -0.126803   -0.666445
     11          1           0       -0.294851   -1.956409    0.552724
     12          1           0        1.620263    1.867498    0.826135
     13          6           0        0.530942   -0.023554    1.363242
     14          1           0       -0.345268    0.374928    1.880691
     15          1           0        1.235484   -0.429519    2.088523
     16          6           0       -2.077236   -0.107702   -0.214754
     17          7           0       -3.162243   -0.100476    0.166465
     18          1           0       -0.692355   -0.500709   -1.690764
 ---------------------------------------------------------------------

 SCF Done:  E(RM06) =  -364.825248963     A.U. after   10 cycles

      1  C    Isotropic =    29.1433   Anisotropy =   185.5934

      2  C    Isotropic =   134.9301   Anisotropy =    16.3961

      3  C    Isotropic =   128.8957   Anisotropy =    15.1887

      4  C    Isotropic =    33.6532   Anisotropy =   178.2516

      5  H    Isotropic =    25.2342   Anisotropy =     1.8415

      6  H    Isotropic =    25.3778   Anisotropy =     1.9441

      7  C    Isotropic =   144.5594   Anisotropy =    18.6823

      8  H    Isotropic =    29.9721   Anisotropy =     8.7238

      9  H    Isotropic =    30.4957   Anisotropy =    10.8032

     10  C    Isotropic =   151.9757   Anisotropy =    20.6777

     11  H    Isotropic =    28.8455   Anisotropy =     8.0550

     12  H    Isotropic =    29.0424   Anisotropy =     9.4189

     13  C    Isotropic =   129.6786   Anisotropy =    29.6390

     14  H    Isotropic =    30.3876   Anisotropy =     9.7433

     15  H    Isotropic =    30.4193   Anisotropy =     9.9598

     16  C    Isotropic =    41.7651   Anisotropy =   377.1211

     17  N    Isotropic =   -28.6285   Anisotropy =   466.2141

     18  H    Isotropic =    29.9017   Anisotropy =    10.1021

 The electronic state is 1-A.
 Alpha  occ. eigenvalues --  -14.38507 -10.28159 -10.27824 -10.25915 -10.25004
 Alpha  occ. eigenvalues --  -10.24918 -10.23760 -10.23733 -10.23620  -0.92532
 Alpha  occ. eigenvalues --   -0.90609  -0.78661  -0.74506  -0.71912  -0.63357
 Alpha  occ. eigenvalues --   -0.58171  -0.54211  -0.53293  -0.51205  -0.49533
 Alpha  occ. eigenvalues --   -0.42842  -0.41780  -0.39381  -0.38516  -0.38404
 Alpha  occ. eigenvalues --   -0.36837  -0.36704  -0.35667  -0.33663  -0.33542
 Alpha  occ. eigenvalues --   -0.33094  -0.26247
 Alpha virt. eigenvalues --    0.00750   0.03015   0.04167   0.04393   0.06630
 Alpha virt. eigenvalues --    0.07196   0.07934   0.08710   0.09688   0.10390
 Alpha virt. eigenvalues --    0.11433   0.12728   0.15439   0.16380   0.17490

 Mulliken charges:
               1
     1  C   -0.226492
     2  C   -0.018448
     3  C   -0.030506
     4  C   -0.262888
     5  H    0.176043
     6  H    0.179062
     7  C   -0.315461
     8  H    0.178923
     9  H    0.162679
    10  C    0.014437
    11  H    0.137266
    12  H    0.119961
    13  C   -0.321849
    14  H    0.175441
    15  H    0.161652
    16  C   -0.061274
    17  N   -0.246646
    18  H    0.178099
 Sum of Mulliken charges =  -0.00000

 Dipole moment (field-independent basis, Debye):
    X=              4.7885    Y=              0.3369    Z=             -1.2687  Tot=              4.9651
 Quadrupole moment (field-independent basis, Debye-Ang):
   XX=            -71.4452   YY=            -49.9397   ZZ=            -51.3940
   XY=              0.5845   XZ=              1.4464   YZ=              0.8176

 Normal termination of Gaussian 16 at Thu Nov 14 14:55:06 2024.
